<UPF version="2.0.1">
<PP_INFO>
Generated using FHI98PP, converted with fhi2upf.x v.5.0.1
Author: Abinit web site
Generation date: 10-Jul-2012, PG
Pseudopotential type: SL
Element: Si
Functional: SLA-PW

Suggested minimum cutoff for wavefunctions:   0. Ry
Suggested minimum cutoff for charge density:   0. Ry
The Pseudo was generated with a Scalar-Relativistic Calculation
L component and cutoff radius for Local Potential:  2   0.0000

Valence configuration:
nl pn  l   occ       Rcut    Rcut US       E pseu
3s  3  0  2.00      0.000      0.000     0.000000
3p  3  1  2.00      0.000      0.000     0.000000
3d  3  2  0.00      0.000      0.000     0.000000
4f  4  3  0.00      0.000      0.000     0.000000

Generation configuration: not available.
Comment:
silicon, fhi98PP : Trouiller-Martins-type, LDA Ceperley/Alder Perdew/Wang (1992)
</PP_INFO>
<!--                               -->
<!-- END OF HUMAN READABLE SECTION -->
<!--                               -->
<PP_HEADER generated="Generated using FHI98PP, converted with fhi2upf.x v.5.0.1"
author="Abinit web site"
date="10-Jul-2012, PG"
comment="silicon, fhi98PP : Trouiller-Martins-type, LDA Ceperley/Alder Perdew/Wang (1992)"
element="Si"
pseudo_type="SL"
relativistic="scalar"
is_ultrasoft="F"
is_paw="F"
is_coulomb="F"
has_so="F"
has_wfc="F"
has_gipaw="F"
paw_as_gipaw="F"
core_correction="F"
functional="SLA-PW"
z_valence="4.000000000000000E+000"
total_psenergy="0.000000000000000E+000"
wfc_cutoff="0.000000000000000E+000"
rho_cutoff="0.000000000000000E+000"
l_max="3"
l_max_rho="0"
l_local="2"
mesh_size="495"
number_of_wfc="4"
number_of_proj="3"/>
<PP_MESH dx="2.439988682353512E-002" mesh="495" xmin="-5.075173815233830E+000" rmax="7.665485521531100E+001"
zmesh="1.400000000000000E+001">
<PP_R type="real" size="495" columns="4">
4.464285714285700E-004  4.574553571428600E-004  4.687545044642900E-004  4.803327407245500E-004
4.921969594204500E-004  5.043542243181400E-004  5.168117736587900E-004  5.295770244681700E-004
5.426575769725300E-004  5.560612191237500E-004  5.697959312361100E-004  5.838698907376400E-004
5.982914770388599E-004  6.130692765217200E-004  6.282120876518001E-004  6.437289262168000E-004
6.596290306943600E-004  6.759218677525100E-004  6.926171378860000E-004  7.097247811917800E-004
7.272549832872200E-004  7.452181813744100E-004  7.636250704543600E-004  7.824866096945800E-004
8.018140289540400E-004  8.216188354692000E-004  8.419128207052900E-004  8.627080673767100E-004
8.840169566409200E-004  9.058521754699501E-004  9.282267242040600E-004  9.511539242919000E-004
9.746474262219100E-004  9.987212176495899E-004  1.023389631725500E-003  1.048667355629200E-003
1.074569439313200E-003  1.101111304464200E-003  1.128308753684500E-003  1.156177979900500E-003
1.184735576004000E-003  1.213998544731300E-003  1.243984308786200E-003  1.274710721213200E-003
1.306196076027200E-003  1.338459119105100E-003  1.371519059347000E-003  1.405395580112800E-003
1.440108850941600E-003  1.475679539559900E-003  1.512128824187000E-003  1.549478406144400E-003
1.587750522776200E-003  1.626967960688800E-003  1.667154069317800E-003  1.708332774829900E-003
1.750528594368200E-003  1.793766650649100E-003  1.838072686920100E-003  1.883473082287100E-003
1.929994867419600E-003  1.977665740644800E-003  2.026514084438800E-003  2.076568982324400E-003
2.127860236187800E-003  2.180418384021600E-003  2.234274718107000E-003  2.289461303644200E-003
2.346010997844200E-003  2.403957469491000E-003  2.463335218987400E-003  2.524179598896400E-003
2.586526834989100E-003  2.650414047813400E-003  2.715879274794400E-003  2.782961492881800E-003
2.851700641756000E-003  2.922137647607300E-003  2.994314447503200E-003  3.068274014356600E-003
3.144060382511200E-003  3.221718673959200E-003  3.301295125206000E-003  3.382837114798600E-003
3.466393191534100E-003  3.552013103365000E-003  3.639747827018100E-003  3.729649598345500E-003
3.821771943424600E-003  3.916169710427200E-003  4.012899102274700E-003  4.112017710100900E-003
4.213584547540400E-003  4.317660085864700E-003  4.424306289985500E-003  4.533586655348200E-003
4.645566245735300E-003  4.760311732004900E-003  4.877891431785400E-003  4.998375350150500E-003
5.121835221299300E-003  5.248344551265400E-003  5.377978661681600E-003  5.510814734625100E-003
5.646931858570400E-003  5.786411075477100E-003  5.929335429041400E-003  6.075790014138700E-003
6.225862027487900E-003  6.379640819566900E-003  6.537217947810200E-003  6.698687231121100E-003
6.864144805729800E-003  7.033689182431300E-003  7.207421305237300E-003  7.385444611476700E-003
7.567865093380200E-003  7.754791361186700E-003  7.946334707808001E-003  8.142609175090800E-003
8.343731621715599E-003  8.549821792771899E-003  8.761002391053400E-003  8.977399150112400E-003
9.199140909120201E-003  9.426359689575500E-003  9.659190773908000E-003  9.897772786023501E-003
1.014224777383800E-002  1.039276129385200E-002  1.064946249781000E-002  1.091250422150600E-002
1.118204307577700E-002  1.145823953974900E-002  1.174125805638100E-002  1.203126713037300E-002
1.232843942849400E-002  1.263295188237700E-002  1.294498579387200E-002  1.326472694298100E-002
1.359236569847200E-002  1.392809713122500E-002  1.427212113036600E-002  1.462464252228600E-002
1.498587119258600E-002  1.535602221104300E-002  1.573531595965600E-002  1.612397826386000E-002
1.652224052697700E-002  1.693033986799300E-002  1.734851926273300E-002  1.777702768852200E-002
1.821612027242900E-002  1.866605844315800E-002  1.912711008670400E-002  1.959954970584500E-002
2.008365858358000E-002  2.057972495059400E-002  2.108804415687400E-002  2.160891884754900E-002
2.214265914308300E-002  2.268958282391700E-002  2.325001551966800E-002  2.382429090300400E-002
2.441275088830800E-002  2.501574583524900E-002  2.563363475738000E-002  2.626678553588700E-002
2.691557513862300E-002  2.758038984454700E-002  2.826162547370800E-002  2.895968762290800E-002
2.967499190719400E-002  3.040796420730200E-002  3.115904092322200E-002  3.192866923402600E-002
3.271730736410600E-002  3.352542485600000E-002  3.435350284994300E-002  3.520203437033600E-002
3.607152461928400E-002  3.696249127738000E-002  3.787546481193100E-002  3.881098879278600E-002
3.976962021596800E-002  4.075192983530200E-002  4.175850250223400E-002  4.278993751403900E-002
4.384684897063600E-002  4.492986614021100E-002  4.603963383387400E-002  4.717681278957100E-002
4.834208006547300E-002  4.953612944309000E-002  5.075967184033500E-002  5.201343573479100E-002
5.329816759744000E-002  5.461463233709700E-002  5.596361375582300E-002  5.734591501559200E-002
5.876235911647700E-002  6.021378938665400E-002  6.170106998450500E-002  6.322508641312199E-002
6.478674604752600E-002  6.638697867490000E-002  6.802673704817000E-002  6.970699745326001E-002
7.142876029035500E-002  7.319305066952700E-002  7.500091902106400E-002  7.685344172088500E-002
7.875172173139000E-002  8.069688925815600E-002  8.269010242283199E-002  8.473254795267600E-002
8.682544188710700E-002  8.897003030171900E-002  9.116759005017100E-002  9.341942952441000E-002
9.572688943366300E-002  9.809134360267500E-002  1.005141997896600E-001  1.029969005244700E-001
1.055409239674200E-001  1.081477847894200E-001  1.108190350737100E-001  1.135562652400300E-001
1.163611049914600E-001  1.192352242847500E-001  1.221803343245900E-001  1.251981885824000E-001
1.282905838403900E-001  1.314593612612500E-001  1.347064074844000E-001  1.380336557492600E-001
1.414430870462700E-001  1.449367312963100E-001  1.485166685593300E-001  1.521850302727500E-001
1.559440005204800E-001  1.597958173333400E-001  1.637427740214700E-001  1.677872205398000E-001
1.719315648871400E-001  1.761782745398500E-001  1.805298779209800E-001  1.849889659056300E-001
1.895581933635000E-001  1.942402807395800E-001  1.990380156738500E-001  2.039542546609900E-001
2.089919247511200E-001  2.141540252924700E-001  2.194436297171900E-001  2.248638873712100E-001
2.304180253892800E-001  2.361093506163900E-001  2.419412515766200E-001  2.479172004905600E-001
2.540407553426800E-001  2.603155619996400E-001  2.667453563810300E-001  2.733339666836400E-001
2.800853156607300E-001  2.870034229575500E-001  2.940924075046000E-001  3.013564899699700E-001
3.087999952722200E-001  3.164273551554500E-001  3.242431108277900E-001  3.322519156652300E-001
3.404585379821600E-001  3.488678638703200E-001  3.574849001079200E-001  3.663147771405900E-001
3.753627521359600E-001  3.846342121137200E-001  3.941346771529300E-001  4.038698036786000E-001
4.138453878294600E-001  4.240673689088500E-001  4.345418329209000E-001  4.452750161940500E-001
4.562733090940400E-001  4.675432598286600E-001  4.790915783464300E-001  4.909251403315900E-001
5.030509912977800E-001  5.154763507828301E-001  5.282086166471700E-001  5.412553694783500E-001
5.546243771044700E-001  5.683235992189500E-001  5.823611921196600E-001  5.967455135650100E-001
6.114851277500700E-001  6.265888104055000E-001  6.420655540225100E-001  6.579245732068700E-001
6.741753101650800E-001  6.908274403261500E-001  7.078908781022100E-001  7.253757827913300E-001
7.432925646262800E-001  7.616518909725500E-001  7.804646926795700E-001  7.997421705887600E-001
8.194958022023000E-001  8.397373485167000E-001  8.604788610250600E-001  8.817326888923800E-001
9.035114863080200E-001  9.258282200198300E-001  9.486961770543200E-001  9.721289726275600E-001
9.961405582514600E-001  1.020745230040300E+000  1.045957637222300E+000  1.071792790861700E+000
1.098266072795900E+000  1.125393244794000E+000  1.153190457940400E+000  1.181674262251500E+000
1.210861616529100E+000  1.240769898457400E+000  1.271416914949300E+000  1.302820912748600E+000
1.335000589293500E+000  1.367975103849000E+000  1.401764088914100E+000  1.436387661910300E+000
1.471866437159400E+000  1.508221538157300E+000  1.545474610149800E+000  1.583647833020500E+000
1.622763934496100E+000  1.662846203678100E+000  1.703918504909000E+000  1.746005291980200E+000
1.789131622692100E+000  1.833323173772600E+000  1.878606256164800E+000  1.925007830692100E+000
1.972555524110200E+000  2.021277645555700E+000  2.071203203400900E+000  2.122361922524900E+000
2.174784262011300E+000  2.228501433283000E+000  2.283545418685100E+000  2.339948990526600E+000
2.397745730592600E+000  2.456970050138200E+000  2.517657210376600E+000  2.579843343472900E+000
2.643565474056700E+000  2.708861541265900E+000  2.775770421335200E+000  2.844331950742200E+000
2.914586949925500E+000  2.986577247588700E+000  3.060345705604100E+000  3.135936244532500E+000
3.213393869772500E+000  3.292764698355800E+000  3.374095986405200E+000  3.457436157269400E+000
3.542834830354000E+000  3.630342850663700E+000  3.720012319075100E+000  3.811896623356300E+000
3.906050469953200E+000  4.002529916561000E+000  4.101392405500100E+000  4.202696797915900E+000
4.306503408824500E+000  4.412874043022400E+000  4.521872031885100E+000  4.633562271072600E+000
4.748011259168100E+000  4.865287137269600E+000  4.985459729560200E+000  5.108600584880300E+000
5.234783019326800E+000  5.364082159904200E+000  5.496574989253800E+000  5.632340391488400E+000
5.771459199158200E+000  5.914014241377400E+000  6.060090393139400E+000  6.209774625849900E+000
6.363156059108400E+000  6.520326013768400E+000  6.681378066308500E+000  6.846408104546300E+000
7.015514384728600E+000  7.188797590031400E+000  7.366360890505200E+000  7.548310004500700E+000
7.734753261611800E+000  7.925801667173600E+000  8.121568968352801E+000  8.322171721871101E+000
8.527729363401299E+000  8.738364278677400E+000  8.954201876360701E+000  9.175370662706801E+000
9.402002318075700E+000  9.634231775332101E+000  9.872197300182799E+000  1.011604057349700E+001
1.036590677566300E+001  1.062194467302200E+001  1.088430670644500E+001  1.115314908209400E+001
1.142863186442200E+001  1.171091907147300E+001  1.200017877253900E+001  1.229658318822000E+001
1.260030879297000E+001  1.291153642015600E+001  1.323045136973400E+001  1.355724351856600E+001
1.389210743347500E+001  1.423524248708200E+001  1.458685297651200E+001  1.494714824503200E+001
1.531634280668500E+001  1.569465647401000E+001  1.608231448891800E+001  1.647954765679400E+001
1.688659248391700E+001  1.730369131827000E+001  1.773109249383100E+001  1.816905047842800E+001
1.861782602524600E+001  1.907768632806900E+001  1.954890518037300E+001  2.003176313832800E+001
2.052654768784400E+001  2.103355341573400E+001  2.155308218510300E+001  2.208544331507500E+001
2.263095376495700E+001  2.318993832295200E+001  2.376272979952900E+001  2.434966922557700E+001
2.495110605544900E+001  2.556739837501800E+001  2.619891311488100E+001  2.684602626881900E+001
2.750912311765900E+001  2.818859845866500E+001  2.888485684059400E+001  2.959831280455600E+001
3.032939113082900E+001  3.107852709176000E+001  3.184616671092700E+001  3.263276702868700E+001
3.343879637429500E+001  3.426473464474000E+001  3.511107359046600E+001  3.597831710815000E+001
3.686698154072100E+001  3.777759598477700E+001  3.871070260560100E+001  3.966685695996000E+001
4.064662832687000E+001  4.165060004654400E+001  4.267936986769400E+001  4.373355030342600E+001
4.481376899592000E+001  4.592066909012000E+001  4.705490961664600E+001  4.821716588417700E+001
4.940812988151600E+001  5.062851068958900E+001  5.187903490362200E+001  5.316044706574200E+001
5.447351010826600E+001  5.581900580794000E+001  5.719773525139600E+001  5.861051931210500E+001
6.005819913911400E+001  6.154163665785000E+001  6.306171508329900E+001  6.461933944585699E+001
6.621543713016899E+001  6.785095842728499E+001  6.952687710043899E+001  7.124419096481900E+001
7.300392248164999E+001  7.480711936694701E+001  7.665485521531100E+001
</PP_R>
<PP_RAB type="real" size="495" columns="4">
1.089280661764957E-005  1.116185894110562E-005  1.143755685695096E-005  1.172006451131746E-005
1.200955010474709E-005  1.230618599233446E-005  1.261014878634492E-005  1.292161946136784E-005
1.324078346206353E-005  1.356783081357646E-005  1.390295623467189E-005  1.424635925366823E-005
1.459824432723384E-005  1.495882096211652E-005  1.532830383988065E-005  1.570691294472571E-005
1.609487369446056E-005  1.649241707471372E-005  1.689977977645922E-005  1.731720433693766E-005
1.774493928406009E-005  1.818323928437627E-005  1.863236529470042E-005  1.909258471747945E-005
1.956417156000129E-005  2.004740659753320E-005  2.054257754049229E-005  2.104997920574244E-005
2.156991369212440E-005  2.210269056031986E-005  2.264862701715981E-005  2.320804810448365E-005
2.378128689266440E-005  2.436868467891318E-005  2.497059119048149E-005  2.558736479288833E-005
2.621937270327167E-005  2.686699120904160E-005  2.753060589190577E-005  2.821061185743566E-005
2.890741397031329E-005  2.962142709538006E-005  3.035307634463685E-005  3.110279733034891E-005
3.187103642440936E-005  3.265825102409296E-005  3.346490982438815E-005  3.429149309704881E-005
3.513849297654625E-005  3.600641375306797E-005  3.689577217276804E-005  3.780709774543495E-005
3.874093305974800E-005  3.969783410632446E-005  4.067837060875035E-005  4.168312636278527E-005
4.271269958394610E-005  4.376770326366970E-005  4.484876553428154E-005  4.595653004298009E-005
4.709165633504191E-005  4.825482024651588E-005  4.944671430660661E-005  5.066804814997887E-005
5.191954893928303E-005  5.320196179808238E-005  5.451605025449664E-005  5.586259669578166E-005
5.724240283416718E-005  5.865629018417228E-005  6.010510055172066E-005  6.158969653534844E-005
6.311096203977054E-005  6.466980280215457E-005  6.626714693136800E-005  6.790394546057226E-005
6.958117291344887E-005  7.129982788440927E-005  7.306093363315418E-005  7.486553869389481E-005
7.671471749963381E-005  7.860957102187412E-005  8.055122742611461E-005  8.254084274353993E-005
8.457960155930475E-005  8.666871771781975E-005  8.880943504544953E-005  9.100302809107342E-005
9.325080288492211E-005  9.555409771618000E-005  9.791428392976838E-005  1.003327667428340E-004
1.028109860813822E-004  1.053504174375936E-004  1.079525727483008E-004  1.106190012951852E-004
1.133512906271763E-004  1.161510675056660E-004  1.190199988730554E-004  1.219597928452199E-004
1.249721997284989E-004  1.280590130617930E-004  1.312220706844179E-004  1.344632558303222E-004
1.377844982493326E-004  1.411877753560914E-004  1.446751134073872E-004  1.482485887085491E-004
1.519103288496497E-004  1.556625139722372E-004  1.595073780673514E-004  1.634472103056147E-004
1.674843564001636E-004  1.716212200032470E-004  1.758602641373259E-004  1.802040126615188E-004
1.846550517742589E-004  1.892160315530833E-004  1.938896675324442E-004  1.986787423204942E-004
2.035861072558118E-004  2.086146841050285E-004  2.137674668024236E-004  2.190475232324430E-004
2.244579970562849E-004  2.300021095835758E-004  2.356831616902898E-004  2.415045357840393E-004
2.474696978178982E-004  2.535821993540052E-004  2.598456796780456E-004  2.662638679660956E-004
2.728405855048534E-004  2.795797479668307E-004  2.864853677416164E-004  2.935615563248194E-004
3.008125267660616E-004  3.082425961771638E-004  3.158561883027468E-004  3.236578361538334E-004
3.316521847068177E-004  3.398439936690942E-004  3.482381403127145E-004  3.568396223784376E-004
3.656535610511737E-004  3.746852040091407E-004  3.839399285481724E-004  3.934232447833243E-004
4.031407989294641E-004  4.130983766630137E-004  4.233019065666041E-004  4.337574636587870E-004
4.444712730111713E-004  4.554497134545474E-004  4.666993213768747E-004  4.782267946148691E-004
4.900389964418717E-004  5.021429596539756E-004  5.145458907574367E-004  5.272551742591506E-004
5.402783770633403E-004  5.536232529768012E-004  5.672977473253342E-004  5.813100016842749E-004
5.956683587258718E-004  6.103813671863957E-004  6.254577869559082E-004  6.409065942937121E-004
6.567369871727568E-004  6.729583907559242E-004  6.895804630076124E-004  7.066131004438861E-004
7.240664440248543E-004  7.419508851922757E-004  7.602770720565161E-004  7.790559157363222E-004
7.982985968549986E-004  8.180165721973312E-004  8.382215815306004E-004  8.589256545943918E-004
8.801411182628903E-004  9.018806038839761E-004  9.241570547999033E-004  9.469837340534684E-004
9.703742322845936E-004  9.943424758220131E-004  1.018902734974818E-003  1.044069632528691E-003
1.069858152452156E-003  1.096283648817731E-003  1.123361854943524E-003  1.151108892760637E-003
1.179541282411815E-003  1.208675952087382E-003  1.238530248103957E-003  1.269121945232118E-003
1.300469257279343E-003  1.332590847934148E-003  1.365505841878114E-003  1.399233836172508E-003
1.433794911925966E-003  1.469209646250538E-003  1.505499124512942E-003  1.542684952888405E-003
1.580789271224746E-003  1.619834766224000E-003  1.659844684949732E-003  1.700842848667995E-003
1.742853667030082E-003  1.785902152605730E-003  1.830013935775084E-003  1.875215279988746E-003
1.921533097404447E-003  1.968994964910353E-003  2.017629140543628E-003  2.067464580315057E-003
2.118530955448836E-003  2.170858670048434E-003  2.224478879198619E-003  2.279423507514819E-003
2.335725268150437E-003  2.393417682273766E-003  2.452535099025902E-003  2.513112715971973E-003
2.575186600056373E-003  2.638793709077881E-003  2.703971913691893E-003  2.770760019960067E-003
2.839197792453112E-003  2.909325977926727E-003  2.981186329581679E-003  3.054821631922167E-003
3.130275726230760E-003  3.207593536668717E-003  3.286821097024364E-003  3.368005578120752E-003
3.451195315900415E-003  3.536439840203084E-003  3.623789904256128E-003  3.713297514891366E-003
3.805015963509014E-003  3.898999857807788E-003  3.995305154295555E-003  4.093989191606647E-003
4.195110724639501E-003  4.298729959538039E-003  4.404908589538524E-003  4.513709831700169E-003
4.625198464543187E-003  4.739440866617440E-003  4.856505056022949E-003  4.976460730906616E-003
5.099379310960096E-003  5.225333979940745E-003  5.354399729245184E-003  5.486653402557672E-003
5.622173741600874E-003  5.761041433018288E-003  5.903339156413966E-003  6.049151633577330E-003
6.198565678926767E-003  6.351670251196156E-003  6.508556506400674E-003  6.669317852108736E-003
6.834050003055921E-003  7.002851038131402E-003  7.175821458773210E-003  7.353064248805065E-003
7.534684935750349E-003  7.720791653663532E-003  7.911495207509032E-003  8.106909139134347E-003
8.307149794870938E-003  8.512336394804264E-003  8.722591103756006E-003  8.938039104018887E-003
9.158808669888090E-003  9.385031244034369E-003  9.616841515762045E-003  9.854377501201187E-003
1.009778062548082E-002  1.034719580693026E-002  1.060277154336147E-002  1.086466000048259E-002
1.113301710249444E-002  1.140800262492598E-002  1.168978028976170E-002  1.197851786291889E-002
1.227438725413298E-002  1.257756461930994E-002  1.288823046540700E-002  1.320656975790242E-002
1.353277203092273E-002  1.386703150008651E-002  1.420954717813870E-002  1.456052299343859E-002
1.492016791137662E-002  1.528869605878770E-002  1.566632685143962E-002  1.605328512467028E-002
1.644980126724964E-002  1.685611135855052E-002  1.727245730910682E-002  1.769908700464165E-002
1.813625445365640E-002  1.858421993866173E-002  1.904325017114663E-002  1.951361845037406E-002
1.999560482609825E-002  2.048949626530295E-002  2.099558682305587E-002  2.151417781758537E-002
2.204557800967969E-002  2.259010378651883E-002  2.314807935004584E-002  2.371983690999194E-002
2.430571688166872E-002  2.490606808864664E-002  2.552124797043633E-002  2.615162279530633E-002
2.679756787834834E-002  2.745946780494456E-002  2.813771665972640E-002  2.883271826122096E-002
2.954488640227282E-002  3.027464509640973E-002  3.102242883029110E-002  3.178868282240056E-002
3.257386328811409E-002  3.337843771132930E-002  3.420288512279986E-002  3.504769638533355E-002
3.591337448604923E-002  3.680043483585618E-002  3.770940557630218E-002  3.864082789403685E-002
3.959525634301940E-002  4.057325917469067E-002  4.157541867630677E-002  4.260233151761027E-002
4.365460910609498E-002  4.473287795101565E-002  4.583778003640615E-002  4.696997320330610E-002
4.813013154142788E-002  4.931894579050062E-002  5.053712375152535E-002  5.178539070818798E-002
5.306448985868107E-002  5.437518275819101E-002  5.571824977231857E-002  5.709449054169430E-002
5.850472445807398E-002  5.994979115218749E-002  6.143055099364619E-002  6.294788560318920E-002
6.450269837758844E-002  6.609591502751487E-002  6.772848412869528E-002  6.940137768667455E-002
7.111559171553462E-002  7.287214683090931E-002  7.467208885763177E-002  7.651648945241477E-002
7.840644674189055E-002  8.034308597641328E-002  8.232756020003097E-002  8.436105093697154E-002
8.644476889511585E-002  8.857995468682414E-002  9.076787956758886E-002  9.300984619290940E-002
9.530718939387425E-002  9.766127697190188E-002  1.000735105131089E-001  1.025453262227814E-001
1.050781957804860E-001  1.076736272162624E-001  1.103331658085052E-001  1.130583950039738E-001
1.158509373605721E-001  1.187124555133794E-001  1.216446531645609E-001  1.246492760977246E-001
1.277281132173374E-001  1.308829976138063E-001  1.341158076548665E-001  1.374284681039425E-001
1.408229512661107E-001  1.443012781623835E-001  1.478655197329938E-001  1.515177980703977E-001
1.552602876827367E-001  1.590952167885009E-001  1.630248686431773E-001  1.670515828986633E-001
1.711777569962604E-001  1.754058475940682E-001  1.797383720296423E-001  1.841779098187750E-001
1.887271041912971E-001  1.933886636648218E-001  1.981653636573432E-001  2.030600481396793E-001
2.080756313287289E-001  2.132150994225507E-001  2.184815123782869E-001  2.238780057340304E-001
2.294077924756620E-001  2.350741649498091E-001  2.408804968240693E-001  2.468302450956161E-001
2.529269521494931E-001  2.591742478675886E-001  2.655758517899023E-001  2.721355753291082E-001
2.788573240397440E-001  2.857450999435202E-001  2.928030039121402E-001  3.000352381087527E-001
3.074461084900624E-001  3.150400273697582E-001  3.228215160457948E-001  3.307952074921155E-001
3.389658491171809E-001  3.473383055903794E-001  3.559175617384392E-001  3.647087255133824E-001
3.737170310335803E-001  3.829478417001068E-001  3.924066533900983E-001  4.020990977288270E-001
4.120309454427336E-001  4.222081097951753E-001  4.326366501071095E-001  4.433227753647399E-001
4.542728479162692E-001  4.654933872597869E-001  4.769910739251207E-001  4.887727534510659E-001
5.008454404612902E-001  5.132163228406902E-001  5.258927660148642E-001  5.388823173354303E-001
5.521927105736069E-001  5.658318705247887E-001  5.798079177267531E-001  5.941291732945949E-001
6.088041638749774E-001  6.238416267226750E-001  6.392505149027264E-001  6.550400026208344E-001
6.712194906855733E-001  6.877986121055025E-001  7.047872378245079E-001  7.221954825987568E-001
7.400337110189574E-001  7.583125436811141E-001  7.770428635100506E-001  7.962358222387512E-001
8.159028470480346E-001  8.360556473701189E-001  8.567062218601833E-001  8.778668655401174E-001
8.995501771189509E-001  9.217690664937936E-001  9.445367624361906E-001  9.678668204683805E-001
9.917731309339247E-001  1.016269927268000E+000  1.041371794471529E+000  1.067093677794974E+000
1.093450891636495E+000  1.120459128659935E+000  1.148134469137837E+000  1.176493390525537E+000
1.205552777271514E+000  1.235329930870110E+000  1.265842580162605E+000  1.297108891892635E+000
1.329147481522387E+000  1.361977424315986E+000  1.395618266696588E+000  1.430090037883982E+000
1.465413261819716E+000  1.501608969386660E+000  1.538698710930513E+000  1.576704569090509E+000
1.615649171947029E+000  1.655555706494140E+000  1.696447932444547E+000  1.738350196375907E+000
1.781287446226391E+000  1.825285246148189E+000  1.870369791728059E+000
</PP_RAB>
</PP_MESH>
<PP_LOCAL type="real" size="495" columns="4">
-1.331640075489440E+001 -1.331640094189820E+001 -1.331640112391960E+001 -1.331640130105500E+001
-1.331640147339720E+001 -1.331640164103580E+001 -1.331640180405640E+001 -1.331640196254160E+001
-1.331640211657040E+001 -1.331640226621840E+001 -1.331640241155780E+001 -1.331640255265720E+001
-1.331640268958240E+001 -1.331640282239500E+001 -1.331640295115380E+001 -1.331640307591340E+001
-1.331640319672600E+001 -1.331640331363920E+001 -1.331640342669820E+001 -1.331640353594360E+001
-1.331640364141300E+001 -1.331640374314040E+001 -1.331640384115600E+001 -1.331640393548620E+001
-1.331640402615360E+001 -1.331640411317720E+001 -1.331640419657200E+001 -1.331640427634840E+001
-1.331640435251380E+001 -1.331640442507040E+001 -1.331640449401660E+001 -1.331640455934640E+001
-1.331640462104940E+001 -1.331640467911000E+001 -1.331640473350860E+001 -1.331640478422020E+001
-1.331640483121460E+001 -1.331640487445700E+001 -1.331640491390660E+001 -1.331640494951740E+001
-1.331640498123760E+001 -1.331640500900900E+001 -1.331640503276780E+001 -1.331640505244360E+001
-1.331640506795880E+001 -1.331640507923000E+001 -1.331640508616540E+001 -1.331640508866640E+001
-1.331640508662660E+001 -1.331640507993120E+001 -1.331640506845720E+001 -1.331640505207280E+001
-1.331640503063680E+001 -1.331640500399860E+001 -1.331640497199780E+001 -1.331640493446280E+001
-1.331640489121220E+001 -1.331640484205240E+001 -1.331640478677800E+001 -1.331640472517160E+001
-1.331640465700240E+001 -1.331640458202600E+001 -1.331640449998380E+001 -1.331640441060240E+001
-1.331640431359260E+001 -1.331640420864900E+001 -1.331640409544920E+001 -1.331640397365260E+001
-1.331640384289980E+001 -1.331640370281220E+001 -1.331640355299000E+001 -1.331640339301200E+001
-1.331640322243460E+001 -1.331640304078980E+001 -1.331640284758560E+001 -1.331640264230280E+001
-1.331640242439600E+001 -1.331640219329000E+001 -1.331640194838020E+001 -1.331640168903000E+001
-1.331640141456980E+001 -1.331640112429520E+001 -1.331640081746540E+001 -1.331640049330080E+001
-1.331640015098260E+001 -1.331639978964880E+001 -1.331639940839360E+001 -1.331639900626480E+001
-1.331639858226160E+001 -1.331639813533160E+001 -1.331639766436880E+001 -1.331639716821120E+001
-1.331639664563720E+001 -1.331639609536340E+001 -1.331639551604100E+001 -1.331639490625280E+001
-1.331639426450980E+001 -1.331639358924720E+001 -1.331639287882160E+001 -1.331639213150580E+001
-1.331639134548560E+001 -1.331639051885520E+001 -1.331638964961240E+001 -1.331638873565360E+001
-1.331638777476960E+001 -1.331638676463940E+001 -1.331638570282480E+001 -1.331638458676520E+001
-1.331638341377020E+001 -1.331638218101440E+001 -1.331638088552980E+001 -1.331637952419880E+001
-1.331637809374720E+001 -1.331637659073520E+001 -1.331637501155020E+001 -1.331637335239760E+001
-1.331637160929180E+001 -1.331636977804600E+001 -1.331636785426340E+001 -1.331636583332480E+001
-1.331636371037900E+001 -1.331636148033020E+001 -1.331635913782600E+001 -1.331635667724400E+001
-1.331635409267900E+001 -1.331635137792740E+001 -1.331634852647360E+001 -1.331634553147300E+001
-1.331634238573580E+001 -1.331633908170960E+001 -1.331633561146060E+001 -1.331633196665460E+001
-1.331632813853660E+001 -1.331632411790900E+001 -1.331631989510960E+001 -1.331631545998720E+001
-1.331631080187780E+001 -1.331630590957660E+001 -1.331630077131240E+001 -1.331629537471700E+001
-1.331628970679540E+001 -1.331628375389340E+001 -1.331627750166340E+001 -1.331627093502940E+001
-1.331626403814900E+001 -1.331625679437360E+001 -1.331624918620740E+001 -1.331624119526300E+001
-1.331623280221540E+001 -1.331622398675300E+001 -1.331621472752680E+001 -1.331620500209560E+001
-1.331619478686920E+001 -1.331618405704880E+001 -1.331617278656280E+001 -1.331616094800000E+001
-1.331614851253920E+001 -1.331613544987500E+001 -1.331612172813840E+001 -1.331610731381420E+001
-1.331609217165320E+001 -1.331607626458020E+001 -1.331605955359480E+001 -1.331604199766920E+001
-1.331602355363880E+001 -1.331600417608560E+001 -1.331598381721720E+001 -1.331596242673660E+001
-1.331593995170540E+001 -1.331591633639900E+001 -1.331589152215320E+001 -1.331586544720140E+001
-1.331583804650160E+001 -1.331580925155460E+001 -1.331577899020960E+001 -1.331574718645860E+001
-1.331571376021780E+001 -1.331567862709600E+001 -1.331564169814820E+001 -1.331560287961320E+001
-1.331556207263620E+001 -1.331551917297160E+001 -1.331547407066820E+001 -1.331542664973360E+001
-1.331537678777620E+001 -1.331532435562440E+001 -1.331526921692000E+001 -1.331521122768420E+001